<?xml version="1.0"?>
<VTKFile type="UnstructuredGrid" version="1.0" byte_order="LittleEndian" compressor="vtkZLibDataCompressor">
  <UnstructuredGrid>
    <Piece NumberOfPoints="522" NumberOfCells="261">
      <Points>
        <DataArray type="Float32" Name="Points" NumberOfComponents="3" format="ascii">
          5.0000000000e+01 0.0000000000e+00 0.0000000000e+00 
          5.0000000000e+01 -5.0000000000e+01 0.0000000000e+00 
          -5.0000000000e+01 -5.0000000000e+01 0.0000000000e+00 
          -5.0000000000e+01 0.0000000000e+00 0.0000000000e+00 
          5.0000000000e+01 -8.0000000000e+01 0.0000000000e+00 
          -5.0000000000e+01 -8.0000000000e+01 0.0000000000e+00 
          5.0000000000e+01 -1.0000000000e+00 0.0000000000e+00 
          5.0000000000e+01 -2.0000000000e+00 0.0000000000e+00 
          5.0000000000e+01 -3.0000000000e+00 0.0000000000e+00 
          5.0000000000e+01 -4.0000000000e+00 0.0000000000e+00 
          5.0000000000e+01 -5.0000000000e+00 0.0000000000e+00 
          5.0000000000e+01 -6.0000000000e+00 0.0000000000e+00 
          5.0000000000e+01 -7.0000000000e+00 0.0000000000e+00 
          5.0000000000e+01 -8.0000000000e+00 0.0000000000e+00 
          5.0000000000e+01 -9.0000000000e+00 0.0000000000e+00 
          5.0000000000e+01 -1.0000000000e+01 0.0000000000e+00 
          5.0000000000e+01 -1.1000000000e+01 0.0000000000e+00 
          5.0000000000e+01 -1.2000000000e+01 0.0000000000e+00 
          5.0000000000e+01 -1.3000000000e+01 0.0000000000e+00 
          5.0000000000e+01 -1.4000000000e+01 0.0000000000e+00 
          5.0000000000e+01 -1.5000000000e+01 0.0000000000e+00 
          5.0000000000e+01 -1.6000000000e+01 0.0000000000e+00 
          5.0000000000e+01 -1.7000000000e+01 0.0000000000e+00 
          5.0000000000e+01 -1.8000000000e+01 0.0000000000e+00 
          5.0000000000e+01 -1.9000000000e+01 0.0000000000e+00 
          5.0000000000e+01 -2.0000000000e+01 0.0000000000e+00 
          5.0000000000e+01 -2.1000000000e+01 0.0000000000e+00 
          5.0000000000e+01 -2.2000000000e+01 0.0000000000e+00 
          5.0000000000e+01 -2.3000000000e+01 0.0000000000e+00 
          5.0000000000e+01 -2.4000000000e+01 0.0000000000e+00 
          5.0000000000e+01 -2.5000000000e+01 0.0000000000e+00 
          5.0000000000e+01 -2.6000000000e+01 0.0000000000e+00 
          5.0000000000e+01 -2.7000000000e+01 0.0000000000e+00 
          5.0000000000e+01 -2.8000000000e+01 0.0000000000e+00 
          5.0000000000e+01 -2.9000000000e+01 0.0000000000e+00 
          5.0000000000e+01 -3.0000000000e+01 0.0000000000e+00 
          5.0000000000e+01 -3.1000000000e+01 0.0000000000e+00 
          5.0000000000e+01 -3.2000000000e+01 0.0000000000e+00 
          5.0000000000e+01 -3.3000000000e+01 0.0000000000e+00 
          5.0000000000e+01 -3.4000000000e+01 0.0000000000e+00 
          5.0000000000e+01 -3.5000000000e+01 0.0000000000e+00 
          5.0000000000e+01 -3.6000000000e+01 0.0000000000e+00 
          5.0000000000e+01 -3.7000000000e+01 0.0000000000e+00 
          5.0000000000e+01 -3.8000000000e+01 0.0000000000e+00 
          5.0000000000e+01 -3.9000000000e+01 0.0000000000e+00 
          5.0000000000e+01 -4.0000000000e+01 0.0000000000e+00 
          5.0000000000e+01 -4.1000000000e+01 0.0000000000e+00 
          5.0000000000e+01 -4.2000000000e+01 0.0000000000e+00 
          5.0000000000e+01 -4.3000000000e+01 0.0000000000e+00 
          5.0000000000e+01 -4.4000000000e+01 0.0000000000e+00 
          5.0000000000e+01 -4.5000000000e+01 0.0000000000e+00 
          5.0000000000e+01 -4.6000000000e+01 0.0000000000e+00 
          5.0000000000e+01 -4.7000000000e+01 0.0000000000e+00 
          5.0000000000e+01 -4.8000000000e+01 0.0000000000e+00 
          5.0000000000e+01 -4.9000000000e+01 0.0000000000e+00 
          -5.0000000000e+01 -4.9000000000e+01 0.0000000000e+00 
          -5.0000000000e+01 -4.8000000000e+01 0.0000000000e+00 
          -5.0000000000e+01 -4.7000000000e+01 0.0000000000e+00 
          -5.0000000000e+01 -4.6000000000e+01 0.0000000000e+00 
          -5.0000000000e+01 -4.5000000000e+01 0.0000000000e+00 
          -5.0000000000e+01 -4.4000000000e+01 0.0000000000e+00 
          -5.0000000000e+01 -4.3000000000e+01 0.0000000000e+00 
          -5.0000000000e+01 -4.2000000000e+01 0.0000000000e+00 
          -5.0000000000e+01 -4.1000000000e+01 0.0000000000e+00 
          -5.0000000000e+01 -4.0000000000e+01 0.0000000000e+00 
          -5.0000000000e+01 -3.9000000000e+01 0.0000000000e+00 
          -5.0000000000e+01 -3.8000000000e+01 0.0000000000e+00 
          -5.0000000000e+01 -3.7000000000e+01 0.0000000000e+00 
          -5.0000000000e+01 -3.6000000000e+01 0.0000000000e+00 
          -5.0000000000e+01 -3.5000000000e+01 0.0000000000e+00 
          -5.0000000000e+01 -3.4000000000e+01 0.0000000000e+00 
          -5.0000000000e+01 -3.3000000000e+01 0.0000000000e+00 
          -5.0000000000e+01 -3.2000000000e+01 0.0000000000e+00 
          -5.0000000000e+01 -3.1000000000e+01 0.0000000000e+00 
          -5.0000000000e+01 -3.0000000000e+01 0.0000000000e+00 
          -5.0000000000e+01 -2.9000000000e+01 0.0000000000e+00 
          -5.0000000000e+01 -2.8000000000e+01 0.0000000000e+00 
          -5.0000000000e+01 -2.7000000000e+01 0.0000000000e+00 
          -5.0000000000e+01 -2.6000000000e+01 0.0000000000e+00 
          -5.0000000000e+01 -2.5000000000e+01 0.0000000000e+00 
          -5.0000000000e+01 -2.4000000000e+01 0.0000000000e+00 
          -5.0000000000e+01 -2.3000000000e+01 0.0000000000e+00 
          -5.0000000000e+01 -2.2000000000e+01 0.0000000000e+00 
          -5.0000000000e+01 -2.1000000000e+01 0.0000000000e+00 
          -5.0000000000e+01 -2.0000000000e+01 0.0000000000e+00 
          -5.0000000000e+01 -1.9000000000e+01 0.0000000000e+00 
          -5.0000000000e+01 -1.8000000000e+01 0.0000000000e+00 
          -5.0000000000e+01 -1.7000000000e+01 0.0000000000e+00 
          -5.0000000000e+01 -1.6000000000e+01 0.0000000000e+00 
          -5.0000000000e+01 -1.5000000000e+01 0.0000000000e+00 
          -5.0000000000e+01 -1.4000000000e+01 0.0000000000e+00 
          -5.0000000000e+01 -1.3000000000e+01 0.0000000000e+00 
          -5.0000000000e+01 -1.2000000000e+01 0.0000000000e+00 
          -5.0000000000e+01 -1.1000000000e+01 0.0000000000e+00 
          -5.0000000000e+01 -1.0000000000e+01 0.0000000000e+00 
          -5.0000000000e+01 -9.0000000001e+00 0.0000000000e+00 
          -5.0000000000e+01 -8.0000000001e+00 0.0000000000e+00 
          -5.0000000000e+01 -7.0000000000e+00 0.0000000000e+00 
          -5.0000000000e+01 -6.0000000000e+00 0.0000000000e+00 
          -5.0000000000e+01 -5.0000000000e+00 0.0000000000e+00 
          -5.0000000000e+01 -4.0000000000e+00 0.0000000000e+00 
          -5.0000000000e+01 -3.0000000000e+00 0.0000000000e+00 
          -5.0000000000e+01 -2.0000000000e+00 0.0000000000e+00 
          -5.0000000000e+01 -1.0000000000e+00 0.0000000000e+00 
          -5.0000000000e+01 -5.1000000000e+01 0.0000000000e+00 
          -5.0000000000e+01 -5.2000000000e+01 0.0000000000e+00 
          -5.0000000000e+01 -5.3000000000e+01 0.0000000000e+00 
          -5.0000000000e+01 -5.4000000000e+01 0.0000000000e+00 
          -5.0000000000e+01 -5.5000000000e+01 0.0000000000e+00 
          -5.0000000000e+01 -5.6000000000e+01 0.0000000000e+00 
          -5.0000000000e+01 -5.7000000000e+01 0.0000000000e+00 
          -5.0000000000e+01 -5.8000000000e+01 0.0000000000e+00 
          -5.0000000000e+01 -5.9000000000e+01 0.0000000000e+00 
          -5.0000000000e+01 -6.0000000000e+01 0.0000000000e+00 
          -5.0000000000e+01 -6.1000000000e+01 0.0000000000e+00 
          -5.0000000000e+01 -6.2000000000e+01 0.0000000000e+00 
          -5.0000000000e+01 -6.3000000000e+01 0.0000000000e+00 
          -5.0000000000e+01 -6.4000000000e+01 0.0000000000e+00 
          -5.0000000000e+01 -6.5000000000e+01 0.0000000000e+00 
          -5.0000000000e+01 -6.6000000000e+01 0.0000000000e+00 
          -5.0000000000e+01 -6.7000000000e+01 0.0000000000e+00 
          -5.0000000000e+01 -6.8000000000e+01 0.0000000000e+00 
          -5.0000000000e+01 -6.9000000000e+01 0.0000000000e+00 
          -5.0000000000e+01 -7.0000000000e+01 0.0000000000e+00 
          -5.0000000000e+01 -7.1000000000e+01 0.0000000000e+00 
          -5.0000000000e+01 -7.2000000000e+01 0.0000000000e+00 
          -5.0000000000e+01 -7.3000000000e+01 0.0000000000e+00 
          -5.0000000000e+01 -7.4000000000e+01 0.0000000000e+00 
          -5.0000000000e+01 -7.5000000000e+01 0.0000000000e+00 
          -5.0000000000e+01 -7.6000000000e+01 0.0000000000e+00 
          -5.0000000000e+01 -7.7000000000e+01 0.0000000000e+00 
          -5.0000000000e+01 -7.8000000000e+01 0.0000000000e+00 
          -5.0000000000e+01 -7.9000000000e+01 0.0000000000e+00 
          -4.9000000000e+01 -8.0000000000e+01 0.0000000000e+00 
          -4.8000000000e+01 -8.0000000000e+01 0.0000000000e+00 
          -4.7000000000e+01 -8.0000000000e+01 0.0000000000e+00 
          -4.6000000000e+01 -8.0000000000e+01 0.0000000000e+00 
          -4.5000000000e+01 -8.0000000000e+01 0.0000000000e+00 
          -4.4000000000e+01 -8.0000000000e+01 0.0000000000e+00 
          -4.3000000000e+01 -8.0000000000e+01 0.0000000000e+00 
          -4.2000000000e+01 -8.0000000000e+01 0.0000000000e+00 
          -4.1000000000e+01 -8.0000000000e+01 0.0000000000e+00 
          -4.0000000000e+01 -8.0000000000e+01 0.0000000000e+00 
          -3.9000000000e+01 -8.0000000000e+01 0.0000000000e+00 
          -3.8000000000e+01 -8.0000000000e+01 0.0000000000e+00 
          -3.7000000000e+01 -8.0000000000e+01 0.0000000000e+00 
          -3.6000000000e+01 -8.0000000000e+01 0.0000000000e+00 
          -3.5000000000e+01 -8.0000000000e+01 0.0000000000e+00 
          -3.4000000000e+01 -8.0000000000e+01 0.0000000000e+00 
          -3.3000000000e+01 -8.0000000000e+01 0.0000000000e+00 
          -3.2000000000e+01 -8.0000000000e+01 0.0000000000e+00 
          -3.1000000000e+01 -8.0000000000e+01 0.0000000000e+00 
[...]
      <PointData>
        <DataArray type="Int32" Name="NodeTag" format="ascii">
          2
          3
          4
          5
          6
          7
          57
          58
          59
          60
          61
          62
          63
          64
          65
          66
          67
          68
          69
          70
          71
          72
          73
          74
          75
          76
          77
          78
          79
          80
          81
          82
          83
          84
          85
          86
          87
          88
          89
          90
          91
          92
          93
          94
          95
          96
          97
          98
          99
          100
          101
          102
          103
          104
          105
          205
          206
          207
          208
          209
          210
          211
          212
          213
          214
          215
          216
          217
          218
          219
          220
          221
          222
          223
          224
          225
          226
          227
          228
          229
          230
          231
          232
          233
          234
          235
          236
          237
          238
          239
          240
          241
          242
          243
          244
          245
          246
          247
          248
          249
          250
          251
          252
          253
          303
          304
          305
          306
          307
          308
          309
          310
          311
          312
          313
          314
          315
          316
          317
          318
          319
          320
          321
          322
          323
          324
          325
          326
          327
          328
          329
          330
          331
          332
          333
          334
          335
          336
          337
          338
          339
          340
          341
          342
          343
          344
          345
          346
          347
          348
          349
          350
          351
          352
          353
          354
          355
          356
          357
          358
          359
          360
          361
          362
          363
          364
          365
          366
          367
          368
          369
          370
          371
          372
          373
          374
          375
          376
          377
          378
          379
          380
          381
          382
          383
          384
          385
          386
          387
          388
          389
          390
          391
          392
          393
          394
          395
          396
          397
          398
          399
          400
          401
          402
          403
          404
          405
          406
          407
          408
          409
          410
          411
          412
          413
          414
          415
          416
          417
          418
          419
          420
          421
          422
          423
          424
          425
          426
          427
          428
          429
          430
          431
          432
          433
          434
          435
          436
          437
          438
          439
          440
          441
          442
          443
          444
          445
          446
          447
          448
          449
          450
          451
          452
          453
          454
          455
          456
          457
          458
          459
          8183
          8184
          8185
          8186
          8187
          8188
          8238
          8239
          8240
          8241
          8242
          8243
          8244
          8245
          8246
          8247
          8248
          8249
          8250
          8251
          8252
          8253
          8254
          8255
          8256
          8257
          8258
          8259
          8260
          8261
          8262
          8263
          8264
          8265
          8266
          8267
          8268
          8269
          8270
          8271
          8272
          8273
          8274
          8275
          8276
          8277
          8278
          8279
          8280
          8281
          8282
          8283
          8284
          8285
          8286
          8386
          8387
          8388
          8389
          8390
          8391
          8392
          8393
          8394
          8395
          8396
          8397
          8398
          8399
          8400
          8401
          8402
          8403
          8404
          8405
          8406
          8407
          8408
          8409
          8410
          8411
          8412
          8413
          8414
          8415
          8416
          8417
          8418
          8419
          8420
          8421
          8422
          8423
          8424
          8425
          8426
          8427
          8428
          8429
          8430
          8431
          8432
          8433
          8434
          8484
          8485
          8486
          8487
          8488
          8489
          8490
          8491
          8492
          8493
          8494
          8495
          8496
          8497
          8498
          8499
          8500
          8501
          8502
          8503
          8504
          8505
          8506
          8507
          8508
          8509
          8510
          8511
          8512
          8513
          8514
          8515
          8516
          8517
          8518
          8519
          8520
          8521
          8522
          8523
          8524
          8525
          8526
          8527
          8528
          8529
          8530
          8531
          8532
          8533
          8534
          8535
          8536
          8537
          8538
          8539
          8540
          8541
          8542
          8543
          8544
          8545
          8546
          8547
          8548
          8549
          8550
          8551
          8552
          8553
          8554
          8555
          8556
          8557
          8558
          8559
          8560
          8561
          8562
          8563
          8564
          8565
          8566
          8567
          8568
          8569
          8570
          8571
          8572
          8573
          8574
          8575
          8576
          8577
          8578
          8579
          8580
          8581
          8582
          8583
          8584
          8585
          8586
          8587
          8588
          8589
          8590
          8591
          8592
          8593
          8594
          8595
          8596
          8597
          8598
          8599
          8600
          8601
          8602
          8603
          8604
          8605
          8606
          8607
          8608
          8609
          8610
          8611
          8612
          8613
          8614
          8615
          8616
          8617
          8618
          8619
          8620
          8621
          8622
          8623
          8624
          8625
          8626
          8627
          8628
          8629
          8630
          8631
          8632
          8633
          8634
          8635
          8636
          8637
          8638
          8639
          8640
        </DataArray>
        <DataArray type="Float32" Name="AllDisplacement" NumberOfComponents="3" format="ascii">
          6.8720730351e-76 2.8170187970e-76 0.0000000000e+00 
          -1.3816984398e-90 -5.2486178771e-90 0.0000000000e+00 
          1.3816984399e-90 -5.2486178773e-90 0.0000000000e+00 
          -6.8720730572e-76 2.8170187969e-76 0.0000000000e+00 
          -5.8924893633e-115 5.5351414886e-114 0.0000000000e+00 
          5.8924893643e-115 5.5351414891e-114 0.0000000000e+00 
          1.1008027503e-75 5.3641609847e-76 0.0000000000e+00 
          2.1353784569e-75 8.8337353564e-76 0.0000000000e+00 
          3.7550575369e-75 1.1450014445e-75 0.0000000000e+00 
          5.6881974508e-75 1.2465288839e-75 0.0000000000e+00 
          7.6479204843e-75 1.1735930205e-75 0.0000000000e+00 
          9.3652040971e-75 9.4746578198e-76 0.0000000000e+00 
          1.0627751518e-74 6.1332442216e-76 0.0000000000e+00 
          1.1307192811e-74 2.2850835546e-76 0.0000000000e+00 
          1.1368585741e-74 -1.4943809734e-76 0.0000000000e+00 
          1.0862318160e-74 -4.7287514005e-76 0.0000000000e+00 
          9.9026202434e-75 -7.1055646194e-76 0.0000000000e+00 
          8.6391259590e-75 -8.4977605490e-76 0.0000000000e+00 
          7.2282131866e-75 -8.9457485146e-76 0.0000000000e+00 
          5.8095246750e-75 -8.6122866024e-76 0.0000000000e+00 
          4.4907953128e-75 -7.7258263971e-76 0.0000000000e+00 
          3.3416593716e-75 -6.5267649003e-76 0.0000000000e+00 
          2.3951258650e-75 -5.2266182479e-76 0.0000000000e+00 
          1.6542501638e-75 -3.9844803771e-76 0.0000000000e+00 
          1.1012439975e-75 -2.9000615579e-76 0.0000000000e+00 
          7.0666328959e-76 -2.0192498365e-76 0.0000000000e+00 
          4.3708641622e-76 -1.3468217661e-76 0.0000000000e+00 
          2.6054024861e-76 -8.6130864362e-77 0.0000000000e+00 
          1.4962827480e-76 -5.2841651774e-77 0.0000000000e+00 
          8.2759278750e-77 -3.1108803469e-77 0.0000000000e+00 
          4.4062843997e-77 -1.7575235390e-77 0.0000000000e+00 
          2.2569718849e-77 -9.5272342156e-78 0.0000000000e+00 
          1.1114215232e-77 -4.9538431003e-78 0.0000000000e+00 
          5.2575951817e-78 -2.4695650680e-78 0.0000000000e+00 
          2.3870518391e-78 -1.1795864333e-78 0.0000000000e+00 
          1.0391199622e-78 -5.3943064196e-79 0.0000000000e+00 
          4.3322259447e-79 -2.3596163874e-79 0.0000000000e+00 
          1.7276564852e-79 -9.8625239115e-80 0.0000000000e+00 
          6.5812386608e-80 -3.9341675195e-80 0.0000000000e+00 
          2.3911420602e-80 -1.4957103942e-80 0.0000000000e+00 
          8.2723980359e-81 -5.4114830658e-81 0.0000000000e+00 
          2.7202014104e-81 -1.8600901689e-81 0.0000000000e+00 
          8.4852027408e-82 -6.0632376521e-82 0.0000000000e+00 
          2.5055058404e-82 -1.8705160138e-82 0.0000000000e+00 
          6.9874173788e-83 -5.4496661289e-83 0.0000000000e+00 
          1.8360534571e-83 -1.4960093237e-83 0.0000000000e+00 
          4.5343906825e-84 -3.8602134561e-84 0.0000000000e+00 
          1.0498305028e-84 -9.3397039187e-85 0.0000000000e+00 
          2.2730677543e-85 -2.1137032212e-85 0.0000000000e+00 
          4.5920786966e-86 -4.4643187737e-86 0.0000000000e+00 
          8.6394755268e-87 -8.7825487286e-87 0.0000000000e+00 
          1.5117960854e-87 -1.6070643291e-87 0.0000000000e+00 
          2.4595919101e-88 -2.7335199615e-88 0.0000000000e+00 
          3.7271659698e-89 -4.3171274706e-89 0.0000000000e+00 
          5.5961035221e-90 -5.8951972995e-90 0.0000000000e+00 
          -5.5961035223e-90 -5.8951972997e-90 0.0000000000e+00 
          -3.7271659699e-89 -4.3171274707e-89 0.0000000000e+00 
          -2.4595919101e-88 -2.7335199615e-88 0.0000000000e+00 
          -1.5117960854e-87 -1.6070643291e-87 0.0000000000e+00 
          -8.6394755265e-87 -8.7825487283e-87 0.0000000000e+00 
          -4.5920786963e-86 -4.4643187734e-86 0.0000000000e+00 
          -2.2730677542e-85 -2.1137032211e-85 0.0000000000e+00 
          -1.0498305028e-84 -9.3397039179e-85 0.0000000000e+00 
          -4.5343906820e-84 -3.8602134557e-84 0.0000000000e+00 
          -1.8360534569e-83 -1.4960093235e-83 0.0000000000e+00 
          -6.9874173779e-83 -5.4496661282e-83 0.0000000000e+00 
          -2.5055058400e-82 -1.8705160136e-82 0.0000000000e+00 
          -8.4852027395e-82 -6.0632376512e-82 0.0000000000e+00 
          -2.7202014100e-81 -1.8600901687e-81 0.0000000000e+00 
          -8.2723980345e-81 -5.4114830649e-81 0.0000000000e+00 
          -2.3911420598e-80 -1.4957103940e-80 0.0000000000e+00 
          -6.5812386597e-80 -3.9341675188e-80 0.0000000000e+00 
          -1.7276564849e-79 -9.8625239099e-80 0.0000000000e+00 
          -4.3322259440e-79 -2.3596163870e-79 0.0000000000e+00 
          -1.0391199621e-78 -5.3943064188e-79 0.0000000000e+00 
          -2.3870518387e-78 -1.1795864331e-78 0.0000000000e+00 
          -5.2575951809e-78 -2.4695650676e-78 0.0000000000e+00 
          -1.1114215230e-77 -4.9538430997e-78 0.0000000000e+00 
          -2.2569718846e-77 -9.5272342144e-78 0.0000000000e+00 
          -4.4062843992e-77 -1.7575235388e-77 0.0000000000e+00 
          -8.2759278741e-77 -3.1108803466e-77 0.0000000000e+00 
          -1.4962827478e-76 -5.2841651769e-77 0.0000000000e+00 
          -2.6054024858e-76 -8.6130864355e-77 0.0000000000e+00 
          -4.3708641618e-76 -1.3468217660e-76 0.0000000000e+00 
          -7.0666328954e-76 -2.0192498364e-76 0.0000000000e+00 
          -1.1012439974e-75 -2.9000615578e-76 0.0000000000e+00 
          -1.6542501638e-75 -3.9844803770e-76 0.0000000000e+00 
          -2.3951258649e-75 -5.2266182479e-76 0.0000000000e+00 
          -3.3416593715e-75 -6.5267649003e-76 0.0000000000e+00 
          -4.4907953127e-75 -7.7258263973e-76 0.0000000000e+00 
          -5.8095246751e-75 -8.6122866028e-76 0.0000000000e+00 
          -7.2282131868e-75 -8.9457485154e-76 0.0000000000e+00 
          -8.6391259593e-75 -8.4977605501e-76 0.0000000000e+00 
          -9.9026202440e-75 -7.1055646208e-76 0.0000000000e+00 
          -1.0862318161e-74 -4.7287514023e-76 0.0000000000e+00 
          -1.1368585742e-74 -1.4943809755e-76 0.0000000000e+00 
          -1.1307192813e-74 2.2850835524e-76 0.0000000000e+00 
          -1.0627751520e-74 6.1332442194e-76 0.0000000000e+00 
          -9.3652040992e-75 9.4746578178e-76 0.0000000000e+00 
          -7.6479204867e-75 1.1735930203e-75 0.0000000000e+00 
          -5.6881974535e-75 1.2465288838e-75 0.0000000000e+00 
          -3.7550575397e-75 1.1450014444e-75 0.0000000000e+00 
          -2.1353784599e-75 8.8337353557e-76 0.0000000000e+00 
          -1.1008027533e-75 5.3641609844e-76 0.0000000000e+00 
          1.1856765755e-90 1.3293204118e-90 0.0000000000e+00 
          3.8036756786e-91 4.5860904877e-91 0.0000000000e+00 
          9.4685422397e-92 1.1647360511e-91 0.0000000000e+00 
          2.0459251500e-92 2.6537669358e-92 0.0000000000e+00 
          4.0017832514e-93 5.5923107941e-93 0.0000000000e+00 
          7.2813472268e-94 1.1037366768e-93 0.0000000000e+00 
          1.2505909798e-94 2.0587106131e-94 0.0000000000e+00 
          2.0459753730e-95 3.6545491440e-95 0.0000000000e+00 
          3.2078836117e-96 6.2091863072e-96 0.0000000000e+00 
          4.8421572071e-97 1.0143995139e-96 0.0000000000e+00 
          7.0618183499e-98 1.5996929549e-97 0.0000000000e+00 
          9.9800372702e-99 2.4431097457e-98 0.0000000000e+00 
          1.3701434875e-99 3.6237108405e-99 0.0000000000e+00 
          1.8312292254e-100 5.2327860333e-100 0.0000000000e+00 
          2.3870387451e-101 7.3724922250e-101 0.0000000000e+00 
          3.0395282275e-102 1.0153626960e-101 0.0000000000e+00 
          3.7859890014e-103 1.3692578204e-102 0.0000000000e+00 
          4.6184084778e-104 1.8107555295e-103 0.0000000000e+00 
          5.5230968936e-105 2.3514262760e-104 0.0000000000e+00 
          6.4806217144e-106 3.0021223296e-105 0.0000000000e+00 
          7.4660684710e-107 3.7724985256e-106 0.0000000000e+00 
          8.4496228546e-108 4.6705461760e-107 0.0000000000e+00 
          9.3974462536e-109 5.7021642908e-108 0.0000000000e+00 
          1.0272797444e-109 6.8707901077e-109 0.0000000000e+00 
          1.1037338191e-110 8.1771074391e-110 0.0000000000e+00 
          1.1652551163e-111 9.6188471027e-111 0.0000000000e+00 
          1.2081249918e-112 1.1190711068e-111 0.0000000000e+00 
          1.2298806230e-113 1.2886880971e-112 0.0000000000e+00 
          1.3573902207e-114 1.5010732200e-113 0.0000000000e+00 
          1.1767813305e-114 3.4945002932e-114 0.0000000000e+00 
          3.7699799257e-114 5.7603387985e-114 0.0000000000e+00 
          8.9020029044e-114 1.2386826750e-113 0.0000000000e+00 
          1.9527696714e-113 2.7443409200e-113 0.0000000000e+00 
          4.1528055060e-113 5.9999915049e-113 0.0000000000e+00 
          8.6309114336e-113 1.2859748065e-112 0.0000000000e+00 
          1.7559773509e-112 2.6998625254e-112 0.0000000000e+00 
          3.4990304239e-112 5.5530696920e-112 0.0000000000e+00 
          6.8307590790e-112 1.1192333132e-111 0.0000000000e+00 
          1.3067347894e-111 2.2111730054e-111 0.0000000000e+00 
          2.4501889564e-111 4.2830613206e-111 0.0000000000e+00 
          4.5039712896e-111 8.1362702175e-111 0.0000000000e+00 
          8.1182074062e-111 1.5161462998e-110 0.0000000000e+00 
          1.4350669743e-110 2.7720561091e-110 0.0000000000e+00 
          2.4883138373e-110 4.9739803803e-110 0.0000000000e+00 
          4.2327927619e-110 8.7607025195e-110 0.0000000000e+00 
          7.0648028334e-110 1.5149354906e-109 0.0000000000e+00 
          1.1571267574e-109 2.5724872670e-109 0.0000000000e+00 
          1.8600326293e-109 4.2903817484e-109 0.0000000000e+00 
          2.9347010863e-109 7.0290768074e-109 0.0000000000e+00 
          4.5451650329e-109 1.1314432839e-108 0.0000000000e+00 
          6.9105126186e-109 1.7896517075e-108 0.0000000000e+00 
          1.0315047696e-108 2.7820905993e-108 0.0000000000e+00 
          1.5116486789e-108 4.2511227662e-108 0.0000000000e+00 
          2.1750016888e-108 6.3859452368e-108 0.0000000000e+00 
          3.0725526179e-108 9.4317539211e-108 0.0000000000e+00 
          4.2615002549e-108 1.3698062598e-107 0.0000000000e+00 
          5.8027127417e-108 1.9564832814e-107 0.0000000000e+00 
          7.7566633150e-108 2.7484740024e-107 0.0000000000e+00 
          1.0177716948e-107 3.7979669574e-107 0.0000000000e+00 
          1.3106829563e-107 5.1629484480e-107 0.0000000000e+00 
          1.6562972581e-107 6.9051316844e-107 0.0000000000e+00 
          2.0533890712e-107 9.0868173218e-107 0.0000000000e+00 
          2.4967104256e-107 1.1766654523e-106 0.0000000000e+00 
          2.9762329236e-107 1.4994396310e-106 0.0000000000e+00 
          3.4766651095e-107 1.8804893903e-106 0.0000000000e+00 
          3.9773793238e-107 2.3211736652e-106 0.0000000000e+00 
          4.4528625289e-107 2.8201095510e-106 0.0000000000e+00 
          4.8737637572e-107 3.3726443041e-106 0.0000000000e+00 
          5.2085483146e-107 3.9704875646e-106 0.0000000000e+00 
          5.4256912578e-107 4.6015731942e-106 0.0000000000e+00 
          5.4962594263e-107 5.2502072236e-106 0.0000000000e+00 
          5.3966547758e-107 5.8975357916e-106 0.0000000000e+00 
          5.1112352899e-107 6.5223362189e-106 0.0000000000e+00 
          4.6345053937e-107 7.1020986378e-106 0.0000000000e+00 
          3.9725838180e-107 7.6143292692e-106 0.0000000000e+00 
          3.1437157128e-107 8.0379745528e-106 0.0000000000e+00 
          2.1776929234e-107 8.3548428365e-106 0.0000000000e+00 
          1.1141703152e-107 8.5508911886e-106 0.0000000000e+00 
          1.4343140740e-117 8.6172513747e-106 0.0000000000e+00 
          -1.1141703150e-107 8.5508911886e-106 0.0000000000e+00 
          -2.1776929231e-107 8.3548428366e-106 0.0000000000e+00 
          -3.1437157125e-107 8.0379745529e-106 0.0000000000e+00 
          -3.9725838178e-107 7.6143292694e-106 0.0000000000e+00 
          -4.6345053935e-107 7.1020986379e-106 0.0000000000e+00 
          -5.1112352898e-107 6.5223362190e-106 0.0000000000e+00 
          -5.3966547757e-107 5.8975357918e-106 0.0000000000e+00 
          -5.4962594263e-107 5.2502072238e-106 0.0000000000e+00 
          -5.4256912578e-107 4.6015731943e-106 0.0000000000e+00 
          -5.2085483147e-107 3.9704875648e-106 0.0000000000e+00 