<?xml version="1.0"?>
<VTKFile type="UnstructuredGrid" version="1.0" byte_order="LittleEndian" compressor="vtkZLibDataCompressor">
  <UnstructuredGrid>
    <Piece NumberOfPoints="402" NumberOfCells="201">
      <Points>
        <DataArray type="Float32" Name="Points" NumberOfComponents="3" format="ascii">
          5.0000000000e+01 0.0000000000e+00 0.0000000000e+00 
          5.0000000000e+01 -5.0000000000e+01 0.0000000000e+00 
          -5.0000000000e+01 -5.0000000000e+01 0.0000000000e+00 
          -5.0000000000e+01 0.0000000000e+00 0.0000000000e+00 
          5.0000000000e+01 -1.0000000000e+00 0.0000000000e+00 
          5.0000000000e+01 -2.0000000000e+00 0.0000000000e+00 
          5.0000000000e+01 -3.0000000000e+00 0.0000000000e+00 
          5.0000000000e+01 -4.0000000000e+00 0.0000000000e+00 
          5.0000000000e+01 -5.0000000000e+00 0.0000000000e+00 
          5.0000000000e+01 -6.0000000000e+00 0.0000000000e+00 
          5.0000000000e+01 -7.0000000000e+00 0.0000000000e+00 
          5.0000000000e+01 -8.0000000000e+00 0.0000000000e+00 
          5.0000000000e+01 -9.0000000000e+00 0.0000000000e+00 
          5.0000000000e+01 -1.0000000000e+01 0.0000000000e+00 
          5.0000000000e+01 -1.1000000000e+01 0.0000000000e+00 
          5.0000000000e+01 -1.2000000000e+01 0.0000000000e+00 
          5.0000000000e+01 -1.3000000000e+01 0.0000000000e+00 
          5.0000000000e+01 -1.4000000000e+01 0.0000000000e+00 
          5.0000000000e+01 -1.5000000000e+01 0.0000000000e+00 
          5.0000000000e+01 -1.6000000000e+01 0.0000000000e+00 
          5.0000000000e+01 -1.7000000000e+01 0.0000000000e+00 
          5.0000000000e+01 -1.8000000000e+01 0.0000000000e+00 
          5.0000000000e+01 -1.9000000000e+01 0.0000000000e+00 
          5.0000000000e+01 -2.0000000000e+01 0.0000000000e+00 
          5.0000000000e+01 -2.1000000000e+01 0.0000000000e+00 
          5.0000000000e+01 -2.2000000000e+01 0.0000000000e+00 
          5.0000000000e+01 -2.3000000000e+01 0.0000000000e+00 
          5.0000000000e+01 -2.4000000000e+01 0.0000000000e+00 
          5.0000000000e+01 -2.5000000000e+01 0.0000000000e+00 
          5.0000000000e+01 -2.6000000000e+01 0.0000000000e+00 
          5.0000000000e+01 -2.7000000000e+01 0.0000000000e+00 
          5.0000000000e+01 -2.8000000000e+01 0.0000000000e+00 
          5.0000000000e+01 -2.9000000000e+01 0.0000000000e+00 
          5.0000000000e+01 -3.0000000000e+01 0.0000000000e+00 
          5.0000000000e+01 -3.1000000000e+01 0.0000000000e+00 
          5.0000000000e+01 -3.2000000000e+01 0.0000000000e+00 
          5.0000000000e+01 -3.3000000000e+01 0.0000000000e+00 
          5.0000000000e+01 -3.4000000000e+01 0.0000000000e+00 
          5.0000000000e+01 -3.5000000000e+01 0.0000000000e+00 
          5.0000000000e+01 -3.6000000000e+01 0.0000000000e+00 
          5.0000000000e+01 -3.7000000000e+01 0.0000000000e+00 
          5.0000000000e+01 -3.8000000000e+01 0.0000000000e+00 
          5.0000000000e+01 -3.9000000000e+01 0.0000000000e+00 
          5.0000000000e+01 -4.0000000000e+01 0.0000000000e+00 
          5.0000000000e+01 -4.1000000000e+01 0.0000000000e+00 
          5.0000000000e+01 -4.2000000000e+01 0.0000000000e+00 
          5.0000000000e+01 -4.3000000000e+01 0.0000000000e+00 
          5.0000000000e+01 -4.4000000000e+01 0.0000000000e+00 
          5.0000000000e+01 -4.5000000000e+01 0.0000000000e+00 
          5.0000000000e+01 -4.6000000000e+01 0.0000000000e+00 
          5.0000000000e+01 -4.7000000000e+01 0.0000000000e+00 
          5.0000000000e+01 -4.8000000000e+01 0.0000000000e+00 
          5.0000000000e+01 -4.9000000000e+01 0.0000000000e+00 
          4.9000000000e+01 -5.0000000000e+01 0.0000000000e+00 
          4.8000000000e+01 -5.0000000000e+01 0.0000000000e+00 
          4.7000000000e+01 -5.0000000000e+01 0.0000000000e+00 
          4.6000000000e+01 -5.0000000000e+01 0.0000000000e+00 
          4.5000000000e+01 -5.0000000000e+01 0.0000000000e+00 
          4.4000000000e+01 -5.0000000000e+01 0.0000000000e+00 
          4.3000000000e+01 -5.0000000000e+01 0.0000000000e+00 
          4.2000000000e+01 -5.0000000000e+01 0.0000000000e+00 
          4.1000000000e+01 -5.0000000000e+01 0.0000000000e+00 
          4.0000000000e+01 -5.0000000000e+01 0.0000000000e+00 
          3.9000000000e+01 -5.0000000000e+01 0.0000000000e+00 
          3.8000000000e+01 -5.0000000000e+01 0.0000000000e+00 
          3.7000000000e+01 -5.0000000000e+01 0.0000000000e+00 
          3.6000000000e+01 -5.0000000000e+01 0.0000000000e+00 
          3.5000000000e+01 -5.0000000000e+01 0.0000000000e+00 
          3.4000000000e+01 -5.0000000000e+01 0.0000000000e+00 
          3.3000000000e+01 -5.0000000000e+01 0.0000000000e+00 
          3.2000000000e+01 -5.0000000000e+01 0.0000000000e+00 
          3.1000000000e+01 -5.0000000000e+01 0.0000000000e+00 
          3.0000000000e+01 -5.0000000000e+01 0.0000000000e+00 
          2.9000000000e+01 -5.0000000000e+01 0.0000000000e+00 
          2.8000000000e+01 -5.0000000000e+01 0.0000000000e+00 
          2.7000000000e+01 -5.0000000000e+01 0.0000000000e+00 
          2.6000000000e+01 -5.0000000000e+01 0.0000000000e+00 
          2.5000000000e+01 -5.0000000000e+01 0.0000000000e+00 
          2.4000000000e+01 -5.0000000000e+01 0.0000000000e+00 
          2.3000000000e+01 -5.0000000000e+01 0.0000000000e+00 
          2.2000000000e+01 -5.0000000000e+01 0.0000000000e+00 
          2.1000000000e+01 -5.0000000000e+01 0.0000000000e+00 
          2.0000000000e+01 -5.0000000000e+01 0.0000000000e+00 
          1.9000000000e+01 -5.0000000000e+01 0.0000000000e+00 
          1.8000000000e+01 -5.0000000000e+01 0.0000000000e+00 
          1.7000000000e+01 -5.0000000000e+01 0.0000000000e+00 
          1.6000000000e+01 -5.0000000000e+01 0.0000000000e+00 
          1.5000000000e+01 -5.0000000000e+01 0.0000000000e+00 
          1.4000000000e+01 -5.0000000000e+01 0.0000000000e+00 
          1.3000000000e+01 -5.0000000000e+01 0.0000000000e+00 
          1.2000000000e+01 -5.0000000000e+01 0.0000000000e+00 
          1.1000000000e+01 -5.0000000000e+01 0.0000000000e+00 
          1.0000000000e+01 -5.0000000000e+01 0.0000000000e+00 
          9.0000000002e+00 -5.0000000000e+01 0.0000000000e+00 
          8.0000000002e+00 -5.0000000000e+01 0.0000000000e+00 
          7.0000000002e+00 -5.0000000000e+01 0.0000000000e+00 
          6.0000000002e+00 -5.0000000000e+01 0.0000000000e+00 
          5.0000000002e+00 -5.0000000000e+01 0.0000000000e+00 
          4.0000000002e+00 -5.0000000000e+01 0.0000000000e+00 
          3.0000000002e+00 -5.0000000000e+01 0.0000000000e+00 
          2.0000000002e+00 -5.0000000000e+01 0.0000000000e+00 
          1.0000000002e+00 -5.0000000000e+01 0.0000000000e+00 
          1.7352164150e-10 -5.0000000000e+01 0.0000000000e+00 
          -9.9999999982e-01 -5.0000000000e+01 0.0000000000e+00 
          -1.9999999998e+00 -5.0000000000e+01 0.0000000000e+00 
          -2.9999999998e+00 -5.0000000000e+01 0.0000000000e+00 
          -3.9999999998e+00 -5.0000000000e+01 0.0000000000e+00 
          -4.9999999998e+00 -5.0000000000e+01 0.0000000000e+00 
          -5.9999999998e+00 -5.0000000000e+01 0.0000000000e+00 
          -6.9999999998e+00 -5.0000000000e+01 0.0000000000e+00 
          -7.9999999998e+00 -5.0000000000e+01 0.0000000000e+00 
          -8.9999999998e+00 -5.0000000000e+01 0.0000000000e+00 
          -9.9999999998e+00 -5.0000000000e+01 0.0000000000e+00 
          -1.1000000000e+01 -5.0000000000e+01 0.0000000000e+00 
          -1.2000000000e+01 -5.0000000000e+01 0.0000000000e+00 
          -1.3000000000e+01 -5.0000000000e+01 0.0000000000e+00 
          -1.4000000000e+01 -5.0000000000e+01 0.0000000000e+00 
          -1.5000000000e+01 -5.0000000000e+01 0.0000000000e+00 
          -1.6000000000e+01 -5.0000000000e+01 0.0000000000e+00 
          -1.7000000000e+01 -5.0000000000e+01 0.0000000000e+00 
          -1.8000000000e+01 -5.0000000000e+01 0.0000000000e+00 
          -1.9000000000e+01 -5.0000000000e+01 0.0000000000e+00 
          -2.0000000000e+01 -5.0000000000e+01 0.0000000000e+00 
          -2.1000000000e+01 -5.0000000000e+01 0.0000000000e+00 
          -2.2000000000e+01 -5.0000000000e+01 0.0000000000e+00 
          -2.3000000000e+01 -5.0000000000e+01 0.0000000000e+00 
          -2.4000000000e+01 -5.0000000000e+01 0.0000000000e+00 
          -2.5000000000e+01 -5.0000000000e+01 0.0000000000e+00 
          -2.6000000000e+01 -5.0000000000e+01 0.0000000000e+00 
          -2.7000000000e+01 -5.0000000000e+01 0.0000000000e+00 
          -2.8000000000e+01 -5.0000000000e+01 0.0000000000e+00 
          -2.9000000000e+01 -5.0000000000e+01 0.0000000000e+00 
          -3.0000000000e+01 -5.0000000000e+01 0.0000000000e+00 
          -3.1000000000e+01 -5.0000000000e+01 0.0000000000e+00 
          -3.2000000000e+01 -5.0000000000e+01 0.0000000000e+00 
          -3.3000000000e+01 -5.0000000000e+01 0.0000000000e+00 
          -3.4000000000e+01 -5.0000000000e+01 0.0000000000e+00 
          -3.5000000000e+01 -5.0000000000e+01 0.0000000000e+00 
          -3.6000000000e+01 -5.0000000000e+01 0.0000000000e+00 
          -3.7000000000e+01 -5.0000000000e+01 0.0000000000e+00 
          -3.8000000000e+01 -5.0000000000e+01 0.0000000000e+00 
          -3.9000000000e+01 -5.0000000000e+01 0.0000000000e+00 
          -4.0000000000e+01 -5.0000000000e+01 0.0000000000e+00 
          -4.1000000000e+01 -5.0000000000e+01 0.0000000000e+00 
          -4.2000000000e+01 -5.0000000000e+01 0.0000000000e+00 
          -4.3000000000e+01 -5.0000000000e+01 0.0000000000e+00 
          -4.4000000000e+01 -5.0000000000e+01 0.0000000000e+00 
          -4.5000000000e+01 -5.0000000000e+01 0.0000000000e+00 
          -4.6000000000e+01 -5.0000000000e+01 0.0000000000e+00 
          -4.7000000000e+01 -5.0000000000e+01 0.0000000000e+00 
          -4.8000000000e+01 -5.0000000000e+01 0.0000000000e+00 
          -4.9000000000e+01 -5.0000000000e+01 0.0000000000e+00 
          -5.0000000000e+01 -4.9000000000e+01 0.0000000000e+00 
[...]
      <PointData>
        <DataArray type="Int32" Name="NodeTag" format="ascii">
          2
          3
          4
          5
          55
          56
          57
          58
          59
          60
          61
          62
          63
          64
          65
          66
          67
          68
          69
          70
          71
          72
          73
          74
          75
          76
          77
          78
          79
          80
          81
          82
          83
          84
          85
          86
          87
          88
          89
          90
          91
          92
          93
          94
          95
          96
          97
          98
          99
          100
          101
          102
          103
          104
          105
          106
          107
          108
          109
          110
          111
          112
          113
          114
          115
          116
          117
          118
          119
          120
          121
          122
          123
          124
          125
          126
          127
          128
          129
          130
          131
          132
          133
          134
          135
          136
          137
          138
          139
          140
          141
          142
          143
          144
          145
          146
          147
          148
          149
          150
          151
          152
          153
          154
          155
          156
          157
          158
          159
          160
          161
          162
          163
          164
          165
          166
          167
          168
          169
          170
          171
          172
          173
          174
          175
          176
          177
          178
          179
          180
          181
          182
          183
          184
          185
          186
          187
          188
          189
          190
          191
          192
          193
          194
          195
          196
          197
          198
          199
          200
          201
          202
          203
          204
          205
          206
          207
          208
          209
          210
          211
          212
          213
          214
          215
          216
          217
          218
          219
          220
          221
          222
          223
          224
          225
          226
          227
          228
          229
          230
          231
          232
          233
          234
          235
          236
          237
          238
          239
          240
          241
          242
          243
          244
          245
          246
          247
          248
          249
          250
          251
          5153
          5154
          5155
          5156
          5206
          5207
          5208
          5209
          5210
          5211
          5212
          5213
          5214
          5215
          5216
          5217
          5218
          5219
          5220
          5221
          5222
          5223
          5224
          5225
          5226
          5227
          5228
          5229
          5230
          5231
          5232
          5233
          5234
          5235
          5236
          5237
          5238
          5239
          5240
          5241
          5242
          5243
          5244
          5245
          5246
          5247
          5248
          5249
          5250
          5251
          5252
          5253
          5254
          5255
          5256
          5257
          5258
          5259
          5260
          5261
          5262
          5263
          5264
          5265
          5266
          5267
          5268
          5269
          5270
          5271
          5272
          5273
          5274
          5275
          5276
          5277
          5278
          5279
          5280
          5281
          5282
          5283
          5284
          5285
          5286
          5287
          5288
          5289
          5290
          5291
          5292
          5293
          5294
          5295
          5296
          5297
          5298
          5299
          5300
          5301
          5302
          5303
          5304
          5305
          5306
          5307
          5308
          5309
          5310
          5311
          5312
          5313
          5314
          5315
          5316
          5317
          5318
          5319
          5320
          5321
          5322
          5323
          5324
          5325
          5326
          5327
          5328
          5329
          5330
          5331
          5332
          5333
          5334
          5335
          5336
          5337
          5338
          5339
          5340
          5341
          5342
          5343
          5344
          5345
          5346
          5347
          5348
          5349
          5350
          5351
          5352
          5353
          5354
          5355
          5356
          5357
          5358
          5359
          5360
          5361
          5362
          5363
          5364
          5365
          5366
          5367
          5368
          5369
          5370
          5371
          5372
          5373
          5374
          5375
          5376
          5377
          5378
          5379
          5380
          5381
          5382
          5383
          5384
          5385
          5386
          5387
          5388
          5389
          5390
          5391
          5392
          5393
          5394
          5395
          5396
          5397
          5398
          5399
          5400
          5401
          5402
        </DataArray>
        <DataArray type="Float32" Name="AllDisplacement" NumberOfComponents="3" format="ascii">
          -1.5649308860e-06 -3.4743366970e-06 0.0000000000e+00 
          9.7556817788e-64 -8.8818914688e-63 0.0000000000e+00 
          -1.1273617597e-79 -1.3256543869e-79 0.0000000000e+00 
          -3.8028831557e-65 4.0284133271e-66 0.0000000000e+00 
          1.2714531685e-07 -1.5777565487e-06 0.0000000000e+00 
          9.6174072394e-07 -2.5523817594e-06 0.0000000000e+00 
          5.1303077573e-08 -6.7955532122e-07 0.0000000000e+00 
          1.0052974883e-09 -1.0877640567e-07 0.0000000000e+00 
          7.4980761604e-11 -1.4224442354e-08 0.0000000000e+00 
          3.3933685974e-11 -1.6261688959e-09 0.0000000000e+00 
          6.4322773177e-12 -1.6764862564e-10 0.0000000000e+00 
          8.2610982191e-13 -1.5863988348e-11 0.0000000000e+00 
          8.7734500020e-14 -1.3983322337e-12 0.0000000000e+00 
          8.1890127409e-15 -1.1613844056e-13 0.0000000000e+00 
          7.0153243551e-16 -9.1745183318e-15 0.0000000000e+00 
          5.6256050349e-17 -6.9449357887e-16 0.0000000000e+00 
          4.2885208674e-18 -5.0682153506e-17 0.0000000000e+00 
          3.1363276088e-19 -3.5831691701e-18 0.0000000000e+00 
          2.2164023654e-20 -2.4640409453e-19 0.0000000000e+00 
          1.5211824046e-21 -1.6536219927e-20 0.0000000000e+00 
          1.0180825856e-22 -1.0860107610e-21 0.0000000000e+00 
          6.6652442613e-24 -6.9960527000e-23 0.0000000000e+00 
          4.2795868116e-25 -4.4294725361e-24 0.0000000000e+00 
          2.7005826972e-26 -2.7609964050e-25 0.0000000000e+00 
          1.6778590534e-27 -1.6967895930e-26 0.0000000000e+00 
          1.0278960902e-28 -1.0294092226e-27 0.0000000000e+00 
          6.2172712009e-30 -6.1719989352e-29 0.0000000000e+00 
          3.7169970487e-31 -3.6606871978e-30 0.0000000000e+00 
          2.1986162436e-32 -2.1496621104e-31 0.0000000000e+00 
          1.2877829209e-33 -1.2507725587e-32 0.0000000000e+00 
          7.4748031856e-35 -7.2157392058e-34 0.0000000000e+00 
          4.3024102173e-36 -4.1299089342e-35 0.0000000000e+00 
          2.4571889391e-37 -2.3463528858e-36 0.0000000000e+00 
          1.3931976644e-38 -1.3238907755e-37 0.0000000000e+00 
          7.8459193974e-40 -7.4218024590e-39 0.0000000000e+00 
          4.3905716495e-41 -4.1356105747e-40 0.0000000000e+00 
          2.4423950566e-42 -2.2914046668e-41 0.0000000000e+00 
          1.3510901164e-43 -1.2628183164e-42 0.0000000000e+00 
          7.4347866956e-45 -6.9245183026e-44 0.0000000000e+00 
          4.0709764196e-46 -3.7789365677e-45 0.0000000000e+00 
          2.2186757196e-47 -2.0530186833e-46 0.0000000000e+00 
          1.2038265283e-48 -1.1106126447e-47 0.0000000000e+00 
          6.5044394115e-50 -5.9837576831e-49 0.0000000000e+00 
          3.5004593219e-51 -3.2115538447e-50 0.0000000000e+00 
          1.8767038690e-52 -1.7173862277e-51 0.0000000000e+00 
          1.0025408584e-53 -9.1518358439e-53 0.0000000000e+00 
          5.3372605881e-55 -4.8607869587e-54 0.0000000000e+00 
          2.8321349386e-56 -2.5735280877e-55 0.0000000000e+00 
          1.4981427687e-57 -1.3584281141e-56 0.0000000000e+00 
          7.9012613587e-59 -7.1496913916e-58 0.0000000000e+00 
          4.1552766269e-60 -3.7526203158e-59 0.0000000000e+00 
          2.1792902682e-61 -1.9644043913e-60 0.0000000000e+00 
          1.1399622510e-62 -1.0272811036e-61 0.0000000000e+00 
          1.0103494284e-63 -1.1299261866e-62 0.0000000000e+00 
          7.1840002053e-64 -1.3121485677e-62 0.0000000000e+00 
          3.4758677421e-64 -1.4167686969e-62 0.0000000000e+00 
          -1.6714573756e-65 -1.4485220683e-62 0.0000000000e+00 
          -3.3531641440e-64 -1.4147620724e-62 0.0000000000e+00 
          -5.8562839457e-64 -1.3268602534e-62 0.0000000000e+00 
          -7.5685808021e-64 -1.1989712905e-62 0.0000000000e+00 
          -8.4851651709e-64 -1.0462290067e-62 0.0000000000e+00 
          -8.6852517440e-64 -8.8302568862e-63 0.0000000000e+00 
          -8.3060994256e-64 -7.2167297733e-63 0.0000000000e+00 
          -7.5140125286e-64 -5.7157943336e-63 0.0000000000e+00 
          -6.4774484108e-64 -4.3895984996e-63 0.0000000000e+00 
          -5.3460712049e-64 -3.2700001292e-63 0.0000000000e+00 
          -4.2376945207e-64 -2.3634430446e-63 0.0000000000e+00 
          -3.2331745990e-64 -1.6575456303e-63 0.0000000000e+00 
          -2.3778836979e-64 -1.1280151637e-63 0.0000000000e+00 
          -1.6876120974e-64 -7.4484101625e-64 0.0000000000e+00 
          -1.1566075852e-64 -4.7714623483e-64 0.0000000000e+00 
          -7.6580742990e-65 -2.9648188691e-64 0.0000000000e+00 
          -4.8992723256e-65 -1.7866071746e-64 0.0000000000e+00 
          -3.0273025682e-65 -1.0441684039e-64 0.0000000000e+00 
          -1.8035519151e-65 -5.9252282357e-65 0.0000000000e+00 
          -1.0295225934e-65 -3.2817161738e-65 0.0000000000e+00 
          -5.5058763079e-66 -1.8104043237e-65 0.0000000000e+00 
          -2.5173327220e-66 -1.0651442794e-65 0.0000000000e+00 
          -4.9207649020e-67 -7.8701862908e-66 0.0000000000e+00 
          1.1907406830e-66 -8.5420520377e-66 0.0000000000e+00 
          3.0256541073e-66 -1.2496226557e-65 0.0000000000e+00 
          5.4555468478e-66 -2.0442772651e-65 0.0000000000e+00 
          8.9251875070e-66 -3.3927913646e-65 0.0000000000e+00 
          1.3910165836e-65 -5.5367726188e-65 0.0000000000e+00 
          2.0918154625e-65 -8.8110715380e-65 0.0000000000e+00 
          3.0459722884e-65 -1.3647415283e-64 0.0000000000e+00 
          4.2987408751e-65 -2.0569503894e-64 0.0000000000e+00 
          5.8805291223e-65 -3.0173722610e-64 0.0000000000e+00 
          7.7957041781e-65 -4.3090572325e-64 0.0000000000e+00 
          1.0010768200e-64 -5.9924110171e-64 0.0000000000e+00 
          1.2444142530e-64 -8.1170265302e-64 0.0000000000e+00 
          1.4960278417e-64 -1.0711962417e-63 0.0000000000e+00 
          1.7370817520e-64 -1.3775549027e-63 0.0000000000e+00 
          1.9444873270e-64 -1.7266263319e-63 0.0000000000e+00 
          2.0929149643e-64 -2.1096484630e-63 0.0000000000e+00 
          2.1576705018e-64 -2.5130902141e-63 0.0000000000e+00 
          2.1181055714e-64 -2.9190918539e-63 0.0000000000e+00 
          1.9610492692e-64 -3.3065590291e-63 0.0000000000e+00 
          1.6836480416e-64 -3.6528568485e-63 0.0000000000e+00 
          1.2950220653e-64 -3.9359350097e-63 0.0000000000e+00 
          8.1630335679e-65 -4.1366164628e-63 0.0000000000e+00 
          2.7889264584e-65 -4.2407246004e-63 0.0000000000e+00 
          -2.7889491120e-65 -4.2407243847e-63 0.0000000000e+00 
          -8.1630545707e-65 -4.1366158315e-63 0.0000000000e+00 
          -1.2950238552e-64 -3.9359340082e-63 0.0000000000e+00 
          -1.6836494117e-64 -3.6528555464e-63 0.0000000000e+00 
          -1.9610501574e-64 -3.3065575124e-63 0.0000000000e+00 
          -2.1181059656e-64 -2.9190902157e-63 0.0000000000e+00 
          -2.1576704369e-64 -2.5130885453e-63 0.0000000000e+00 
          -2.0929145129e-64 -2.1096468440e-63 0.0000000000e+00 
          -1.9444865886e-64 -1.7266248268e-63 0.0000000000e+00 
          -1.7370808458e-64 -1.3775535550e-63 0.0000000000e+00 
          -1.4960269167e-64 -1.0711950696e-63 0.0000000000e+00 
          -1.2444135478e-64 -8.1170163947e-64 0.0000000000e+00 
          -1.0010768553e-64 -5.9924016136e-64 0.0000000000e+00 
          -7.7957252965e-65 -4.3090460469e-64 0.0000000000e+00 
          -5.8806062992e-65 -3.0173524152e-64 0.0000000000e+00 
          -4.2989650053e-65 -2.0569036323e-64 0.0000000000e+00 
          -3.0465682844e-65 -1.3646210042e-64 0.0000000000e+00 
          -2.0933164149e-65 -8.8079703208e-65 0.0000000000e+00 
          -1.3946328922e-65 -5.5290238371e-65 0.0000000000e+00 
          -9.0088482858e-66 -3.3741160155e-65 0.0000000000e+00 
          -5.6417042828e-66 -2.0009063834e-65 0.0000000000e+00 
          -3.4245055439e-66 -1.1525249642e-65 0.0000000000e+00 
          -2.0142653110e-66 -6.4449077987e-66 0.0000000000e+00 
          -1.1476856119e-66 -3.4969964883e-66 0.0000000000e+00 
          -6.3320642680e-67 -1.8400826361e-66 0.0000000000e+00 
          -3.3813125367e-67 -9.3837314950e-67 0.0000000000e+00 
          -1.7466959312e-67 -4.6347037505e-67 0.0000000000e+00 
          -8.7234476310e-68 -2.2154740860e-67 0.0000000000e+00 
          -4.2093644760e-68 -1.0241798684e-67 0.0000000000e+00 
          -1.9610647396e-68 -4.5750086839e-68 0.0000000000e+00 
          -8.8140085699e-69 -1.9730031786e-68 0.0000000000e+00 
          -3.8184615014e-69 -8.2067012523e-69 0.0000000000e+00 
          -1.5930542553e-69 -3.2890301674e-69 0.0000000000e+00 
          -6.3937910990e-70 -1.2686601256e-69 0.0000000000e+00 
          -2.4660019407e-70 -4.7041901407e-70 0.0000000000e+00 
          -9.1288866017e-71 -1.6746824510e-70 0.0000000000e+00 
          -3.2394639983e-71 -5.7160220376e-71 0.0000000000e+00 
          -1.1004205288e-71 -1.8678122220e-71 0.0000000000e+00 
          -3.5729786087e-72 -5.8340718571e-72 0.0000000000e+00 
          -1.1071365263e-72 -1.7389547195e-72 0.0000000000e+00 
          -3.2684515343e-73 -4.9376517255e-73 0.0000000000e+00 
          -9.1766883211e-74 -1.3331199565e-73 0.0000000000e+00 
          -2.4458767885e-74 -3.4159091431e-74 0.0000000000e+00 
          -6.1768813179e-75 -8.2906141840e-75 0.0000000000e+00 
          -1.4752595111e-75 -1.9022508925e-75 0.0000000000e+00 
          -3.3260771647e-76 -4.1184790892e-76 0.0000000000e+00 
          -7.0667106584e-77 -8.3994093252e-77 0.0000000000e+00 
          -1.4127987462e-77 -1.6112941202e-77 0.0000000000e+00 
          -2.6547764393e-78 -2.9046912870e-78 0.0000000000e+00 
          -4.6922770874e-79 -4.9580580818e-79 0.0000000000e+00 
          -4.6679004197e-79 -5.4351994099e-79 0.0000000000e+00 
          -2.8784099183e-78 -3.2086146188e-78 0.0000000000e+00 
          -1.6723415073e-77 -1.7835091626e-77 0.0000000000e+00 
          -9.1047510967e-77 -9.2892827796e-77 0.0000000000e+00 
          -4.6450246918e-76 -4.5340985981e-76 0.0000000000e+00 
          -2.2222194905e-75 -2.0756163573e-75 0.0000000000e+00 
          -9.9813834915e-75 -8.9227371724e-75 0.0000000000e+00 
          -4.2158270292e-74 -3.6076946538e-74 0.0000000000e+00 
          -1.6774324863e-73 -1.3743935988e-73 0.0000000000e+00 
          -6.2995657980e-73 -4.9425461533e-73 0.0000000000e+00 
          -2.2373194123e-72 -1.6809862298e-72 0.0000000000e+00 
          -7.5289735078e-72 -5.4169006555e-72 0.0000000000e+00 
          -2.4051688590e-71 -1.6568331093e-71 0.0000000000e+00 
          -7.3068673177e-71 -4.8180824261e-71 0.0000000000e+00 
          -2.1145716960e-70 -1.3341855792e-70 0.0000000000e+00 
          -5.8385034594e-70 -3.5231670992e-70 0.0000000000e+00 
          -1.5402903712e-69 -8.8838600009e-70 0.0000000000e+00 
          -3.8878676414e-69 -2.1416370022e-69 0.0000000000e+00 
          -9.4008475880e-69 -4.9412624491e-69 0.0000000000e+00 
          -2.1800306218e-68 -1.0921907313e-68 0.0000000000e+00 
          -4.8534194567e-68 -2.3147111944e-68 0.0000000000e+00 
          -1.0383177455e-67 -4.7070702274e-68 0.0000000000e+00 
          -2.1363728961e-67 -9.1902142029e-68 0.0000000000e+00 
          -4.2307388165e-67 -1.7235876056e-67 0.0000000000e+00 
          -8.0693357026e-67 -3.1061960125e-67 0.0000000000e+00 
          -1.4831822841e-66 -5.3802942238e-67 0.0000000000e+00 
          -2.6284653192e-66 -8.9575892537e-67 0.0000000000e+00 
          -4.4930330123e-66 -1.4332876925e-66 0.0000000000e+00 
          -7.4104980651e-66 -2.2033884801e-66 0.0000000000e+00 
          -1.1795793411e-65 -3.2524605843e-66 0.0000000000e+00 
          -1.8123372026e-65 -4.6057936273e-66 0.0000000000e+00 
          -2.6878096671e-65 -6.2487549653e-66 0.0000000000e+00 
          -3.8474448326e-65 -8.1068840388e-66 0.0000000000e+00 
          -5.3146269480e-65 -1.0030035178e-65 0.0000000000e+00 
          -7.0818957558e-65 -1.1787306813e-65 0.0000000000e+00 
          -9.0987190316e-65 -1.3079615500e-65 0.0000000000e+00 
          -1.1263083444e-64 -1.3574614487e-65 0.0000000000e+00 
          -1.3420567305e-64 -1.2963923603e-65 0.0000000000e+00 
          -1.5374020165e-64 -1.1035903092e-65 0.0000000000e+00 
          -1.6905294359e-64 -7.7500474340e-66 0.0000000000e+00 
          -1.7807769799e-64 -3.2938394328e-66 0.0000000000e+00 
          -1.7925197814e-64 1.8979607151e-66 0.0000000000e+00 
          -1.7189513969e-64 7.1764897264e-66 0.0000000000e+00 
          -1.5648720028e-64 1.1768305576e-65 0.0000000000e+00 
          -1.3476526532e-64 1.4910640218e-65 0.0000000000e+00 
          -1.0958537490e-64 1.6008645842e-65 0.0000000000e+00 
          -8.4552232566e-65 1.4787967862e-65 0.0000000000e+00 
          -6.3498927605e-65 1.1447334673e-65 0.0000000000e+00 
          -5.0048192336e-65 7.0485840012e-66 0.0000000000e+00 
          0.0000000000e+00 0.0000000000e+00 0.0000000000e+00 
          0.0000000000e+00 0.0000000000e+00 0.0000000000e+00 
          0.0000000000e+00 0.0000000000e+00 0.0000000000e+00 
          0.0000000000e+00 0.0000000000e+00 0.0000000000e+00 
          0.0000000000e+00 0.0000000000e+00 0.0000000000e+00 
          0.0000000000e+00 0.0000000000e+00 0.0000000000e+00 
          0.0000000000e+00 0.0000000000e+00 0.0000000000e+00 
          0.0000000000e+00 0.0000000000e+00 0.0000000000e+00 
          0.0000000000e+00 0.0000000000e+00 0.0000000000e+00 
          0.0000000000e+00 0.0000000000e+00 0.0000000000e+00 
          0.0000000000e+00 0.0000000000e+00 0.0000000000e+00 
          0.0000000000e+00 0.0000000000e+00 0.0000000000e+00 
          0.0000000000e+00 0.0000000000e+00 0.0000000000e+00 
          0.0000000000e+00 0.0000000000e+00 0.0000000000e+00 
          0.0000000000e+00 0.0000000000e+00 0.0000000000e+00 
          0.0000000000e+00 0.0000000000e+00 0.0000000000e+00 
          0.0000000000e+00 0.0000000000e+00 0.0000000000e+00 
          0.0000000000e+00 0.0000000000e+00 0.0000000000e+00 
          0.0000000000e+00 0.0000000000e+00 0.0000000000e+00 
          0.0000000000e+00 0.0000000000e+00 0.0000000000e+00 