<?xml version="1.0"?>
<VTKFile type="UnstructuredGrid" version="1.0" byte_order="LittleEndian" compressor="vtkZLibDataCompressor">
  <UnstructuredGrid>
    <Piece NumberOfPoints="802" NumberOfCells="401">
      <Points>
        <DataArray type="Float32" Name="Points" NumberOfComponents="3" format="ascii">
          1.0000000000e+02 0.0000000000e+00 0.0000000000e+00 
          1.0000000000e+02 -5.0000000000e+01 0.0000000000e+00 
          -1.0000000000e+02 -5.0000000000e+01 0.0000000000e+00 
          -1.0000000000e+02 0.0000000000e+00 0.0000000000e+00 
          1.0000000000e+02 -1.0000000000e+02 0.0000000000e+00 
          -1.0000000000e+02 -1.0000000000e+02 0.0000000000e+00 
          1.0000000000e+02 -1.0000000000e+00 0.0000000000e+00 
          1.0000000000e+02 -2.0000000000e+00 0.0000000000e+00 
          1.0000000000e+02 -3.0000000000e+00 0.0000000000e+00 
          1.0000000000e+02 -4.0000000000e+00 0.0000000000e+00 
          1.0000000000e+02 -5.0000000000e+00 0.0000000000e+00 
          1.0000000000e+02 -6.0000000000e+00 0.0000000000e+00 
          1.0000000000e+02 -7.0000000000e+00 0.0000000000e+00 
          1.0000000000e+02 -8.0000000000e+00 0.0000000000e+00 
          1.0000000000e+02 -9.0000000000e+00 0.0000000000e+00 
          1.0000000000e+02 -1.0000000000e+01 0.0000000000e+00 
          1.0000000000e+02 -1.1000000000e+01 0.0000000000e+00 
          1.0000000000e+02 -1.2000000000e+01 0.0000000000e+00 
          1.0000000000e+02 -1.3000000000e+01 0.0000000000e+00 
          1.0000000000e+02 -1.4000000000e+01 0.0000000000e+00 
          1.0000000000e+02 -1.5000000000e+01 0.0000000000e+00 
          1.0000000000e+02 -1.6000000000e+01 0.0000000000e+00 
          1.0000000000e+02 -1.7000000000e+01 0.0000000000e+00 
          1.0000000000e+02 -1.8000000000e+01 0.0000000000e+00 
          1.0000000000e+02 -1.9000000000e+01 0.0000000000e+00 
          1.0000000000e+02 -2.0000000000e+01 0.0000000000e+00 
          1.0000000000e+02 -2.1000000000e+01 0.0000000000e+00 
          1.0000000000e+02 -2.2000000000e+01 0.0000000000e+00 
          1.0000000000e+02 -2.3000000000e+01 0.0000000000e+00 
          1.0000000000e+02 -2.4000000000e+01 0.0000000000e+00 
          1.0000000000e+02 -2.5000000000e+01 0.0000000000e+00 
          1.0000000000e+02 -2.6000000000e+01 0.0000000000e+00 
          1.0000000000e+02 -2.7000000000e+01 0.0000000000e+00 
          1.0000000000e+02 -2.8000000000e+01 0.0000000000e+00 
          1.0000000000e+02 -2.9000000000e+01 0.0000000000e+00 
          1.0000000000e+02 -3.0000000000e+01 0.0000000000e+00 
          1.0000000000e+02 -3.1000000000e+01 0.0000000000e+00 
          1.0000000000e+02 -3.2000000000e+01 0.0000000000e+00 
          1.0000000000e+02 -3.3000000000e+01 0.0000000000e+00 
          1.0000000000e+02 -3.4000000000e+01 0.0000000000e+00 
          1.0000000000e+02 -3.5000000000e+01 0.0000000000e+00 
          1.0000000000e+02 -3.6000000000e+01 0.0000000000e+00 
          1.0000000000e+02 -3.7000000000e+01 0.0000000000e+00 
          1.0000000000e+02 -3.8000000000e+01 0.0000000000e+00 
          1.0000000000e+02 -3.9000000000e+01 0.0000000000e+00 
          1.0000000000e+02 -4.0000000000e+01 0.0000000000e+00 
          1.0000000000e+02 -4.1000000000e+01 0.0000000000e+00 
          1.0000000000e+02 -4.2000000000e+01 0.0000000000e+00 
          1.0000000000e+02 -4.3000000000e+01 0.0000000000e+00 
          1.0000000000e+02 -4.4000000000e+01 0.0000000000e+00 
          1.0000000000e+02 -4.5000000000e+01 0.0000000000e+00 
          1.0000000000e+02 -4.6000000000e+01 0.0000000000e+00 
          1.0000000000e+02 -4.7000000000e+01 0.0000000000e+00 
          1.0000000000e+02 -4.8000000000e+01 0.0000000000e+00 
          1.0000000000e+02 -4.9000000000e+01 0.0000000000e+00 
          -1.0000000000e+02 -4.9000000000e+01 0.0000000000e+00 
          -1.0000000000e+02 -4.8000000000e+01 0.0000000000e+00 
          -1.0000000000e+02 -4.7000000000e+01 0.0000000000e+00 
          -1.0000000000e+02 -4.6000000000e+01 0.0000000000e+00 
          -1.0000000000e+02 -4.5000000000e+01 0.0000000000e+00 
          -1.0000000000e+02 -4.4000000000e+01 0.0000000000e+00 
          -1.0000000000e+02 -4.3000000000e+01 0.0000000000e+00 
          -1.0000000000e+02 -4.2000000000e+01 0.0000000000e+00 
          -1.0000000000e+02 -4.1000000000e+01 0.0000000000e+00 
          -1.0000000000e+02 -4.0000000000e+01 0.0000000000e+00 
          -1.0000000000e+02 -3.9000000000e+01 0.0000000000e+00 
          -1.0000000000e+02 -3.8000000000e+01 0.0000000000e+00 
          -1.0000000000e+02 -3.7000000000e+01 0.0000000000e+00 
          -1.0000000000e+02 -3.6000000000e+01 0.0000000000e+00 
          -1.0000000000e+02 -3.5000000000e+01 0.0000000000e+00 
          -1.0000000000e+02 -3.4000000000e+01 0.0000000000e+00 
          -1.0000000000e+02 -3.3000000000e+01 0.0000000000e+00 
          -1.0000000000e+02 -3.2000000000e+01 0.0000000000e+00 
          -1.0000000000e+02 -3.1000000000e+01 0.0000000000e+00 
          -1.0000000000e+02 -3.0000000000e+01 0.0000000000e+00 
          -1.0000000000e+02 -2.9000000000e+01 0.0000000000e+00 
          -1.0000000000e+02 -2.8000000000e+01 0.0000000000e+00 
          -1.0000000000e+02 -2.7000000000e+01 0.0000000000e+00 
          -1.0000000000e+02 -2.6000000000e+01 0.0000000000e+00 
          -1.0000000000e+02 -2.5000000000e+01 0.0000000000e+00 
          -1.0000000000e+02 -2.4000000000e+01 0.0000000000e+00 
          -1.0000000000e+02 -2.3000000000e+01 0.0000000000e+00 
          -1.0000000000e+02 -2.2000000000e+01 0.0000000000e+00 
          -1.0000000000e+02 -2.1000000000e+01 0.0000000000e+00 
          -1.0000000000e+02 -2.0000000000e+01 0.0000000000e+00 
          -1.0000000000e+02 -1.9000000000e+01 0.0000000000e+00 
          -1.0000000000e+02 -1.8000000000e+01 0.0000000000e+00 
          -1.0000000000e+02 -1.7000000000e+01 0.0000000000e+00 
          -1.0000000000e+02 -1.6000000000e+01 0.0000000000e+00 
          -1.0000000000e+02 -1.5000000000e+01 0.0000000000e+00 
          -1.0000000000e+02 -1.4000000000e+01 0.0000000000e+00 
          -1.0000000000e+02 -1.3000000000e+01 0.0000000000e+00 
          -1.0000000000e+02 -1.2000000000e+01 0.0000000000e+00 
          -1.0000000000e+02 -1.1000000000e+01 0.0000000000e+00 
          -1.0000000000e+02 -1.0000000000e+01 0.0000000000e+00 
          -1.0000000000e+02 -9.0000000001e+00 0.0000000000e+00 
          -1.0000000000e+02 -8.0000000001e+00 0.0000000000e+00 
          -1.0000000000e+02 -7.0000000000e+00 0.0000000000e+00 
          -1.0000000000e+02 -6.0000000000e+00 0.0000000000e+00 
          -1.0000000000e+02 -5.0000000000e+00 0.0000000000e+00 
          -1.0000000000e+02 -4.0000000000e+00 0.0000000000e+00 
          -1.0000000000e+02 -3.0000000000e+00 0.0000000000e+00 
          -1.0000000000e+02 -2.0000000000e+00 0.0000000000e+00 
          -1.0000000000e+02 -1.0000000000e+00 0.0000000000e+00 
          1.0000000000e+02 -5.1000000000e+01 0.0000000000e+00 
          1.0000000000e+02 -5.2000000000e+01 0.0000000000e+00 
          1.0000000000e+02 -5.3000000000e+01 0.0000000000e+00 
          1.0000000000e+02 -5.4000000000e+01 0.0000000000e+00 
          1.0000000000e+02 -5.5000000000e+01 0.0000000000e+00 
          1.0000000000e+02 -5.6000000000e+01 0.0000000000e+00 
          1.0000000000e+02 -5.7000000000e+01 0.0000000000e+00 
          1.0000000000e+02 -5.8000000000e+01 0.0000000000e+00 
          1.0000000000e+02 -5.9000000000e+01 0.0000000000e+00 
          1.0000000000e+02 -6.0000000000e+01 0.0000000000e+00 
          1.0000000000e+02 -6.1000000000e+01 0.0000000000e+00 
          1.0000000000e+02 -6.2000000000e+01 0.0000000000e+00 
          1.0000000000e+02 -6.3000000000e+01 0.0000000000e+00 
          1.0000000000e+02 -6.4000000000e+01 0.0000000000e+00 
          1.0000000000e+02 -6.5000000000e+01 0.0000000000e+00 
          1.0000000000e+02 -6.6000000000e+01 0.0000000000e+00 
          1.0000000000e+02 -6.7000000000e+01 0.0000000000e+00 
          1.0000000000e+02 -6.8000000000e+01 0.0000000000e+00 
          1.0000000000e+02 -6.9000000000e+01 0.0000000000e+00 
          1.0000000000e+02 -7.0000000000e+01 0.0000000000e+00 
          1.0000000000e+02 -7.1000000000e+01 0.0000000000e+00 
          1.0000000000e+02 -7.2000000000e+01 0.0000000000e+00 
          1.0000000000e+02 -7.3000000000e+01 0.0000000000e+00 
          1.0000000000e+02 -7.4000000000e+01 0.0000000000e+00 
          1.0000000000e+02 -7.5000000000e+01 0.0000000000e+00 
          1.0000000000e+02 -7.6000000000e+01 0.0000000000e+00 
          1.0000000000e+02 -7.7000000000e+01 0.0000000000e+00 
          1.0000000000e+02 -7.8000000000e+01 0.0000000000e+00 
          1.0000000000e+02 -7.9000000000e+01 0.0000000000e+00 
          1.0000000000e+02 -8.0000000000e+01 0.0000000000e+00 
          1.0000000000e+02 -8.1000000000e+01 0.0000000000e+00 
          1.0000000000e+02 -8.2000000000e+01 0.0000000000e+00 
          1.0000000000e+02 -8.3000000000e+01 0.0000000000e+00 
          1.0000000000e+02 -8.4000000000e+01 0.0000000000e+00 
          1.0000000000e+02 -8.5000000000e+01 0.0000000000e+00 
          1.0000000000e+02 -8.6000000000e+01 0.0000000000e+00 
          1.0000000000e+02 -8.7000000000e+01 0.0000000000e+00 
          1.0000000000e+02 -8.8000000000e+01 0.0000000000e+00 
          1.0000000000e+02 -8.9000000000e+01 0.0000000000e+00 
          1.0000000000e+02 -9.0000000000e+01 0.0000000000e+00 
          1.0000000000e+02 -9.1000000000e+01 0.0000000000e+00 
          1.0000000000e+02 -9.2000000000e+01 0.0000000000e+00 
          1.0000000000e+02 -9.3000000000e+01 0.0000000000e+00 
          1.0000000000e+02 -9.4000000000e+01 0.0000000000e+00 
          1.0000000000e+02 -9.5000000000e+01 0.0000000000e+00 
          1.0000000000e+02 -9.6000000000e+01 0.0000000000e+00 
          1.0000000000e+02 -9.7000000000e+01 0.0000000000e+00 
          1.0000000000e+02 -9.8000000000e+01 0.0000000000e+00 
          1.0000000000e+02 -9.9000000000e+01 0.0000000000e+00 
[...]
      <PointData>
        <DataArray type="Int32" Name="NodeTag" format="ascii">
          2
          3
          4
          5
          6
          7
          107
          108
          109
          110
          111
          112
          113
          114
          115
          116
          117
          118
          119
          120
          121
          122
          123
          124
          125
          126
          127
          128
          129
          130
          131
          132
          133
          134
          135
          136
          137
          138
          139
          140
          141
          142
          143
          144
          145
          146
          147
          148
          149
          150
          151
          152
          153
          154
          155
          355
          356
          357
          358
          359
          360
          361
          362
          363
          364
          365
          366
          367
          368
          369
          370
          371
          372
          373
          374
          375
          376
          377
          378
          379
          380
          381
          382
          383
          384
          385
          386
          387
          388
          389
          390
          391
          392
          393
          394
          395
          396
          397
          398
          399
          400
          401
          402
          403
          503
          504
          505
          506
          507
          508
          509
          510
          511
          512
          513
          514
          515
          516
          517
          518
          519
          520
          521
          522
          523
          524
          525
          526
          527
          528
          529
          530
          531
          532
          533
          534
          535
          536
          537
          538
          539
          540
          541
          542
          543
          544
          545
          546
          547
          548
          549
          550
          551
          552
          553
          554
          555
          556
          557
          558
          559
          560
          561
          562
          563
          564
          565
          566
          567
          568
          569
          570
          571
          572
          573
          574
          575
          576
          577
          578
          579
          580
          581
          582
          583
          584
          585
          586
          587
          588
          589
          590
          591
          592
          593
          594
          595
          596
          597
          598
          599
          600
          601
          602
          603
          604
          605
          606
          607
          608
          609
          610
          611
          612
          613
          614
          615
          616
          617
          618
          619
          620
          621
          622
          623
          624
          625
          626
          627
          628
          629
          630
          631
          632
          633
          634
          635
          636
          637
          638
          639
          640
          641
          642
          643
          644
          645
          646
          647
          648
          649
          650
          651
          652
          653
          654
          655
          656
          657
          658
          659
          660
          661
          662
          663
          664
          665
          666
          667
          668
          669
          670
          671
          672
          673
          674
          675
          676
          677
          678
          679
          680
          681
          682
          683
          684
          685
          686
          687
          688
          689
          690
          691
          692
          693
          694
          695
          696
          697
          698
          699
          700
          701
          702
          703
          704
          705
          706
          707
          708
          709
          710
          711
          712
          713
          714
          715
          716
          717
          718
          719
          720
          721
          722
          723
          724
          725
          726
          727
          728
          729
          730
          731
          732
          733
          734
          735
          736
          737
          738
          739
          740
          741
          742
          743
          744
          745
          746
          747
          748
          749
          750
          751
          752
          753
          754
          755
          756
          757
          758
          759
          760
          761
          762
          763
          764
          765
          766
          767
          768
          769
          770
          771
          772
          773
          774
          775
          776
          777
          778
          779
          780
          781
          782
          783
          784
          785
          786
          787
          788
          789
          790
          791
          792
          793
          794
          795
          796
          797
          798
          799
          20303
          20304
          20305
          20306
          20307
          20308
          20408
          20409
          20410
          20411
          20412
          20413
          20414
          20415
          20416
          20417
          20418
          20419
          20420
          20421
          20422
          20423
          20424
          20425
          20426
          20427
          20428
          20429
          20430
          20431
          20432
          20433
          20434
          20435
          20436
          20437
          20438
          20439
          20440
          20441
          20442
          20443
          20444
          20445
          20446
          20447
          20448
          20449
          20450
          20451
          20452
          20453
          20454
          20455
          20456
          20656
          20657
          20658
          20659
          20660
          20661
          20662
          20663
          20664
          20665
          20666
          20667
          20668
          20669
          20670
          20671
          20672
          20673
          20674
          20675
          20676
          20677
          20678
          20679
          20680
          20681
          20682
          20683
          20684
          20685
          20686
          20687
          20688
          20689
          20690
          20691
          20692
          20693
          20694
          20695
          20696
          20697
          20698
          20699
          20700
          20701
          20702
          20703
          20704
          20804
          20805
          20806
          20807
          20808
          20809
          20810
          20811
          20812
          20813
          20814
          20815
          20816
          20817
          20818
          20819
          20820
          20821
          20822
          20823
          20824
          20825
          20826
          20827
          20828
          20829
          20830
          20831
          20832
          20833
          20834
          20835
          20836
          20837
          20838
          20839
          20840
          20841
          20842
          20843
          20844
          20845
          20846
          20847
          20848
          20849
          20850
          20851
          20852
          20853
          20854
          20855
          20856
          20857
          20858
          20859
          20860
          20861
          20862
          20863
          20864
          20865
          20866
          20867
          20868
          20869
          20870
          20871
          20872
          20873
          20874
          20875
          20876
          20877
          20878
          20879
          20880
          20881
          20882
          20883
          20884
          20885
          20886
          20887
          20888
          20889
          20890
          20891
          20892
          20893
          20894
          20895
          20896
          20897
          20898
          20899
          20900
          20901
          20902
          20903
          20904
          20905
          20906
          20907
          20908
          20909
          20910
          20911
          20912
          20913
          20914
          20915
          20916
          20917
          20918
          20919
          20920
          20921
          20922
          20923
          20924
          20925
          20926
          20927
          20928
          20929
          20930
          20931
          20932
          20933
          20934
          20935
          20936
          20937
          20938
          20939
          20940
          20941
          20942
          20943
          20944
          20945
          20946
          20947
          20948
          20949
          20950
          20951
          20952
          20953
          20954
          20955
          20956
          20957
          20958
          20959
          20960
          20961
          20962
          20963
          20964
          20965
          20966
          20967
          20968
          20969
          20970
          20971
          20972
          20973
          20974
          20975
          20976
          20977
          20978
          20979
          20980
          20981
          20982
          20983
          20984
          20985
          20986
          20987
          20988
          20989
          20990
          20991
          20992
          20993
          20994
          20995
          20996
          20997
          20998
          20999
          21000
          21001
          21002
          21003
          21004
          21005
          21006
          21007
          21008
          21009
          21010
          21011
          21012
          21013
          21014
          21015
          21016
          21017
          21018
          21019
          21020
          21021
          21022
          21023
          21024
          21025
          21026
          21027
          21028
          21029
          21030
          21031
          21032
          21033
          21034
          21035
          21036
          21037
          21038
          21039
          21040
          21041
          21042
          21043
          21044
          21045
          21046
          21047
          21048
          21049
          21050
          21051
          21052
          21053
          21054
          21055
          21056
          21057
          21058
          21059
          21060
          21061
          21062
          21063
          21064
          21065
          21066
          21067
          21068
          21069
          21070
          21071
          21072
          21073
          21074
          21075
          21076
          21077
          21078
          21079
          21080
          21081
          21082
          21083
          21084
          21085
          21086
          21087
          21088
          21089
          21090
          21091
          21092
          21093
          21094
          21095
          21096
          21097
          21098
          21099
          21100
        </DataArray>
        <DataArray type="Float32" Name="AllDisplacement" NumberOfComponents="3" format="ascii">
          6.6810323833e-160 1.5536116763e-161 0.0000000000e+00 
          2.1494510181e-143 7.1431620074e-144 0.0000000000e+00 
          -2.1494510179e-143 7.1431620068e-144 0.0000000000e+00 
          -6.6810323958e-160 1.5536116759e-161 0.0000000000e+00 
          1.8255853813e-154 -1.7738044228e-154 0.0000000000e+00 
          -1.8255853814e-154 -1.7738044229e-154 0.0000000000e+00 
          9.8734766260e-160 2.9849624964e-161 0.0000000000e+00 
          1.0444867595e-159 4.8616717780e-161 0.0000000000e+00 
          1.1370646067e-159 6.6816367246e-161 0.0000000000e+00 
          1.2555821355e-159 7.9544395212e-161 0.0000000000e+00 
          1.3893136042e-159 8.5370845687e-161 0.0000000000e+00 
          1.5265561923e-159 8.3839928168e-161 0.0000000000e+00 
          1.6555717539e-159 7.5228770538e-161 0.0000000000e+00 
          1.7655985189e-159 6.0435408577e-161 0.0000000000e+00 
          1.8477312658e-159 4.0842859369e-161 0.0000000000e+00 
          1.8955662632e-159 1.8148611263e-161 0.0000000000e+00 
          1.9055579076e-159 -5.8231934784e-162 0.0000000000e+00 
          1.8770749990e-159 -2.9304571001e-161 0.0000000000e+00 
          1.8121809341e-159 -5.0741207776e-161 0.0000000000e+00 
          1.7151911205e-159 -6.8909635232e-161 0.0000000000e+00 
          1.5920798320e-159 -8.2985850717e-161 0.0000000000e+00 
          1.4498162911e-159 -9.2564255023e-161 0.0000000000e+00 
          1.2957064749e-159 -9.7632041594e-161 0.0000000000e+00 
          1.1368049844e-159 -9.8508822771e-161 0.0000000000e+00 
          9.7944327635e-160 -9.5763892905e-161 0.0000000000e+00 
          8.2889996740e-160 -9.0124067624e-161 0.0000000000e+00 
          6.8921892202e-160 -8.2383788612e-161 0.0000000000e+00 
          5.6316392214e-160 -7.3326651288e-161 0.0000000000e+00 
          4.5228647595e-160 -6.3664304189e-161 0.0000000000e+00 
          3.5707637004e-160 -5.3995369856e-161 0.0000000000e+00 
          2.7716266114e-160 -4.4784124637e-161 0.0000000000e+00 
          2.1153505187e-160 -3.6356462177e-161 0.0000000000e+00 
          1.5876075603e-160 -2.8909279343e-161 0.0000000000e+00 
          1.1717877679e-160 -2.2528720389e-161 0.0000000000e+00 
          8.5061781689e-161 -1.7211238060e-161 0.0000000000e+00 
          6.0755188057e-161 -1.2864971860e-161 0.0000000000e+00 
          4.2946170495e-161 -9.0888612445e-162 0.0000000000e+00 
          3.2680834180e-161 -2.6089380730e-162 0.0000000000e+00 
          5.4256922088e-161 4.0111705903e-161 0.0000000000e+00 
          3.7674470515e-160 4.7384443976e-160 0.0000000000e+00 
          3.8669184192e-159 5.0665378925e-159 0.0000000000e+00 
          4.1000438205e-158 5.3878079509e-158 0.0000000000e+00 
          4.3591525254e-157 5.7312592366e-157 0.0000000000e+00 
          4.6384728635e-156 6.1006088978e-156 0.0000000000e+00 
          4.9390946815e-155 6.4979677244e-155 0.0000000000e+00 
          5.2627413425e-154 6.9254590084e-154 0.0000000000e+00 
          5.6114928959e-153 7.3852838576e-153 0.0000000000e+00 
          5.9880947609e-152 7.8795874876e-152 0.0000000000e+00 
          6.3968314296e-151 8.4100572432e-151 0.0000000000e+00 
          6.8458454611e-150 8.9768114075e-150 0.0000000000e+00 
          7.3532907058e-149 9.5753556259e-149 0.0000000000e+00 
          7.9639133741e-148 1.0188274143e-147 0.0000000000e+00 
          8.7924882173e-147 1.0762406222e-146 0.0000000000e+00 
          1.0156534170e-145 1.1148059908e-145 0.0000000000e+00 
          1.2933542218e-144 1.0900449126e-144 0.0000000000e+00 
          -1.2933542217e-144 1.0900449126e-144 0.0000000000e+00 
          -1.0156534169e-145 1.1148059907e-145 0.0000000000e+00 
          -8.7924882169e-147 1.0762406221e-146 0.0000000000e+00 
          -7.9639133739e-148 1.0188274143e-147 0.0000000000e+00 
          -7.3532907057e-149 9.5753556259e-149 0.0000000000e+00 
          -6.8458454611e-150 8.9768114076e-150 0.0000000000e+00 
          -6.3968314298e-151 8.4100572435e-151 0.0000000000e+00 
          -5.9880947612e-152 7.8795874880e-152 0.0000000000e+00 
          -5.6114928963e-153 7.3852838581e-153 0.0000000000e+00 
          -5.2627413429e-154 6.9254590090e-154 0.0000000000e+00 
          -4.9390946820e-155 6.4979677250e-155 0.0000000000e+00 
          -4.6384728640e-156 6.1006088985e-156 0.0000000000e+00 
          -4.3591525260e-157 5.7312592374e-157 0.0000000000e+00 
          -4.1000438211e-158 5.3878079518e-158 0.0000000000e+00 
          -3.8669184199e-159 5.0665378933e-159 0.0000000000e+00 
          -3.7674470521e-160 4.7384443985e-160 0.0000000000e+00 
          -5.4256922091e-161 4.0111705913e-161 0.0000000000e+00 
          -3.2680834175e-161 -2.6089380709e-162 0.0000000000e+00 
          -4.2946170487e-161 -9.0888612430e-162 0.0000000000e+00 
          -6.0755188047e-161 -1.2864971858e-161 0.0000000000e+00 
          -8.5061781675e-161 -1.7211238058e-161 0.0000000000e+00 
          -1.1717877678e-160 -2.2528720387e-161 0.0000000000e+00 
          -1.5876075601e-160 -2.8909279340e-161 0.0000000000e+00 
          -2.1153505184e-160 -3.6356462174e-161 0.0000000000e+00 
          -2.7716266111e-160 -4.4784124636e-161 0.0000000000e+00 
          -3.5707637002e-160 -5.3995369855e-161 0.0000000000e+00 
          -4.5228647592e-160 -6.3664304190e-161 0.0000000000e+00 
          -5.6316392212e-160 -7.3326651292e-161 0.0000000000e+00 
          -6.8921892201e-160 -8.2383788620e-161 0.0000000000e+00 
          -8.2889996741e-160 -9.0124067637e-161 0.0000000000e+00 
          -9.7944327638e-160 -9.5763892923e-161 0.0000000000e+00 
          -1.1368049845e-159 -9.8508822796e-161 0.0000000000e+00 
          -1.2957064750e-159 -9.7632041628e-161 0.0000000000e+00 
          -1.4498162912e-159 -9.2564255065e-161 0.0000000000e+00 
          -1.5920798322e-159 -8.2985850769e-161 0.0000000000e+00 
          -1.7151911209e-159 -6.8909635293e-161 0.0000000000e+00 
          -1.8121809345e-159 -5.0741207846e-161 0.0000000000e+00 
          -1.8770749995e-159 -2.9304571079e-161 0.0000000000e+00 
          -1.9055579084e-159 -5.8231935623e-162 0.0000000000e+00 
          -1.8955662641e-159 1.8148611175e-161 0.0000000000e+00 
          -1.8477312668e-159 4.0842859279e-161 0.0000000000e+00 
          -1.7655985201e-159 6.0435408488e-161 0.0000000000e+00 
          -1.6555717552e-159 7.5228770452e-161 0.0000000000e+00 
          -1.5265561938e-159 8.3839928089e-161 0.0000000000e+00 
          -1.3893136057e-159 8.5370845617e-161 0.0000000000e+00 
          -1.2555821371e-159 7.9544395153e-161 0.0000000000e+00 
          -1.1370646084e-159 6.6816367200e-161 0.0000000000e+00 
          -1.0444867613e-159 4.8616717748e-161 0.0000000000e+00 
          -9.8734766443e-160 2.9849624949e-161 0.0000000000e+00 
          4.0291387019e-143 9.3916195564e-144 0.0000000000e+00 
          5.2797479745e-143 7.8838689002e-144 0.0000000000e+00 
          6.1735437988e-143 5.5309936895e-144 0.0000000000e+00 
          6.7212342448e-143 2.9385929866e-144 0.0000000000e+00 
          6.9332514822e-143 4.2610393024e-145 0.0000000000e+00 
          6.8394198181e-143 -1.7933394351e-144 0.0000000000e+00 
          6.4884871994e-143 -3.5790502614e-144 0.0000000000e+00 
          5.9418776799e-143 -4.8575279455e-144 0.0000000000e+00 
          5.2660183164e-143 -5.6176540390e-144 0.0000000000e+00 
          4.5251171360e-143 -5.9004967197e-144 0.0000000000e+00 
          3.7754459083e-143 -5.7845291531e-144 0.0000000000e+00 
          3.0616482088e-143 -5.3689354158e-144 0.0000000000e+00 
          2.4151556784e-143 -4.7577972769e-144 0.0000000000e+00 
          1.8544539944e-143 -4.0472987234e-144 0.0000000000e+00 
          1.3867223468e-143 -3.3171168498e-144 0.0000000000e+00 